    -----------------------------------------------------------------------
          Psi4: An Open-Source Ab Initio Electronic Structure Package
                              Psi4 0.3.53 Driver

                          Git: Rev {master} b88170f 

    J. M. Turney, A. C. Simmonett, R. M. Parrish, E. G. Hohenstein,
    F. A. Evangelista, J. T. Fermann, B. J. Mintz, L. A. Burns, J. J. Wilke,
    M. L. Abrams, N. J. Russ, M. L. Leininger, C. L. Janssen, E. T. Seidl,
    W. D. Allen, H. F. Schaefer, R. A. King, E. F. Valeev, C. D. Sherrill,
    and T. D. Crawford, WIREs Comput. Mol. Sci. 2, 556-565 (2012)
    (doi: 10.1002/wcms.93)

                         Additional Contributions by
    A. E. DePrince, M. Saitow, U. Bozkaya, A. Yu. Sokolov
    -----------------------------------------------------------------------


    Psi4 started on: Tue Sep  1 17:16:40 2015

    Process ID:   2493
    PSI4DATADIR: /home/avcopan/Packages/psi4/lib
    Memory level set to 256.000 MB

  ==> Input File <==

--------------------------------------------------------------------------
molecule {
  0 1
  O
  H 1 0.9
  H 1 0.9 2 104.5
}

set basis sto-3g

psi4.plugin('./plugin_main.so')

--------------------------------------------------------------------------
Reading options from the PLUGIN_MAIN block
Calling plugin ./plugin_main.so.
Hello World!
nbf = 7
  SO Basis Dimension (n = 4): 4  0  1  2  
  Irrep: 1 Size: 4 x 4

                 1                   2                   3                   4

    1     0.00000000000000     0.00000000000000     0.00000000000000     0.00000000000000
    2     0.00000000000000     0.00000000000000     0.00000000000000     0.00000000000000
    3     0.00000000000000     0.00000000000000     0.00000000000000     0.00000000000000
    4     0.00000000000000     0.00000000000000     0.00000000000000     0.00000000000000



  Irrep: 2 Size: 0 x 0

	(empty)

  Irrep: 3 Size: 1 x 1

                 1

    1     0.00000000000000



  Irrep: 4 Size: 2 x 2

                 1                   2

    1     0.00000000000000     0.00000000000000
    2     0.00000000000000     0.00000000000000



  ## AO-basis Overlap Ints (Symmetry 0) ##
  Irrep: 1 Size: 7 x 7

                 1                   2                   3                   4                   5

    1     1.00000000000000     0.23670393651085     0.00000000000000     0.00000000000000     0.00000000000000
    2     0.23670393651085     1.00000000000000     0.00000000000000     0.00000000000000     0.00000000000000
    3     0.00000000000000     0.00000000000000     1.00000000000000     0.00000000000000     0.00000000000000
    4     0.00000000000000     0.00000000000000     0.00000000000000     1.00000000000000     0.00000000000000
    5     0.00000000000000     0.00000000000000     0.00000000000000     0.00000000000000     1.00000000000000
    6     0.06178327742757     0.51304925582528     0.25254598381135     0.00000000000000    -0.32616765779508
    7     0.06178327742757     0.51304925582528     0.25254598381135     0.00000000000000     0.32616765779508

                 6                   7

    1     0.06178327742757     0.06178327742757
    2     0.51304925582528     0.51304925582528
    3     0.25254598381135     0.25254598381135
    4     0.00000000000000     0.00000000000000
    5    -0.32616765779508     0.32616765779508
    6     1.00000000000000     0.28626575599269
    7     0.28626575599269     1.00000000000000



  Irrep: 1 Size: 4 x 4

                 1                   2                   3                   4

    1     1.00000000000000     0.23670393651085     0.00000000000000     0.08737474886593
    2     0.23670393651085     1.00000000000000     0.00000000000000     0.72556121575354
    3     0.00000000000000     0.00000000000000     1.00000000000000     0.35715395542886
    4     0.08737474886593     0.72556121575354     0.35715395542886     1.28626575599269



  Irrep: 2 Size: 0 x 0

	(empty)

  Irrep: 3 Size: 1 x 1

                 1

    1     1.00000000000000



  Irrep: 4 Size: 2 x 2

                 1                   2

    1     1.00000000000000    -0.46127072526127
    2    -0.46127072526127     0.71373424400731




*** PSI4 exiting successfully. Buy a developer a beer!
