
Host: knut

Timers On : Tue Sep  1 21:59:28 2015
Timers Off: Tue Sep  1 21:59:28 2015

Wall Time:        0.00 seconds


***********************************************************
