
Host: knut

Timers On : Wed Sep  2 11:18:11 2015
Timers Off: Wed Sep  2 11:18:12 2015

Wall Time:        1.00 seconds


***********************************************************
