
Host: knut

Timers On : Wed Sep  2 10:54:31 2015
Timers Off: Wed Sep  2 10:54:31 2015

Wall Time:        0.00 seconds


***********************************************************
