
Host: hal

Timers On : Thu Sep  3 13:02:30 2015
Timers Off: Thu Sep  3 13:02:31 2015

Wall Time:        1.00 seconds


***********************************************************
