
Host: hal

Timers On : Wed Aug 19 13:01:13 2015
Timers Off: Wed Aug 19 13:01:13 2015

Wall Time:        0.00 seconds


***********************************************************
