
Host: knut

Timers On : Wed Aug 19 19:46:24 2015
Timers Off: Wed Aug 19 19:46:25 2015

Wall Time:        1.00 seconds


***********************************************************

Host: knut

Timers On : Wed Aug 19 19:52:23 2015
Timers Off: Wed Aug 19 19:52:23 2015

Wall Time:        0.00 seconds


***********************************************************
