
Host: knut

Timers On : Wed Aug 19 19:22:43 2015
Timers Off: Wed Aug 19 19:22:43 2015

Wall Time:        0.00 seconds


***********************************************************
