    -----------------------------------------------------------------------
          Psi4: An Open-Source Ab Initio Electronic Structure Package
                              Psi4 0.3.71 Driver

                          Git: Rev {master} 47c6ad3 

    J. M. Turney, A. C. Simmonett, R. M. Parrish, E. G. Hohenstein,
    F. A. Evangelista, J. T. Fermann, B. J. Mintz, L. A. Burns, J. J. Wilke,
    M. L. Abrams, N. J. Russ, M. L. Leininger, C. L. Janssen, E. T. Seidl,
    W. D. Allen, H. F. Schaefer, R. A. King, E. F. Valeev, C. D. Sherrill,
    and T. D. Crawford, WIREs Comput. Mol. Sci. 2, 556-565 (2012)
    (doi: 10.1002/wcms.93)

                         Additional Contributions by
    A. E. DePrince, M. Saitow, U. Bozkaya, A. Yu. Sokolov
    -----------------------------------------------------------------------


    Psi4 started on: Mon Sep 21 12:54:33 2015

    Process ID:   9955
    PSI4DATADIR: /home/avcopan/Documents/code/github/psi4/lib
    Memory level set to 256.000 MB

  ==> Input File <==

--------------------------------------------------------------------------
molecule {
  symmetry c1
  0 1
  O 
  H 1 0.96
  H 1 0.96 2 104.5
}

# Save PSIFILES:
# PSIF_CHKPT = 32
psi4_io.set_specific_path(32,'.')
psi4_io.set_specific_retention(32,True)
# PSIF_OEI   = 35
psi4_io.set_specific_path(35,'.')
psi4_io.set_specific_retention(35,True)
# PSIF_TEI   = 33
psi4_io.set_specific_path(33,'.')
psi4_io.set_specific_retention(33,True)

set basis sto-3g
set reference rhf
set scf_type pk
energy('scf')
energy('conv-mp2')
--------------------------------------------------------------------------

*** tstart() called on hal
*** at Mon Sep 21 12:54:33 2015


         ---------------------------------------------------------
                                   SCF
            by Justin Turney, Rob Parrish, and Andy Simmonett
                              RHF Reference
                        1 Threads,    256 MiB Core
         ---------------------------------------------------------

  ==> Geometry <==

    Molecular point group: c1
    Full point group: C2v

    Geometry (in Angstrom), charge = 0, multiplicity = 1:

       Center              X                  Y                   Z               Mass       
    ------------   -----------------  -----------------  -----------------  -----------------
           O          0.000000000000     0.000000000000    -0.065775570538    15.994914619560
           H          0.000000000000    -0.759061990794     0.521953018295     1.007825032070
           H          0.000000000000     0.759061990794     0.521953018295     1.007825032070

  Running in c1 symmetry.

  Rotational constants: A =     27.26297  B =     14.51533  C =      9.47217 [cm^-1]
  Rotational constants: A = 817323.20514  B = 435158.59817  C = 283968.37324 [MHz]
  Nuclear repulsion =    9.168193260387572

  Charge       = 0
  Multiplicity = 1
  Electrons    = 10
  Nalpha       = 5
  Nbeta        = 5

  ==> Algorithm <==

  SCF Algorithm Type is PK.
  DIIS enabled.
  MOM disabled.
  Fractional occupation disabled.
  Guess Type is CORE.
  Energy threshold   = 1.00e-06
  Density threshold  = 1.00e-06
  Integral threshold = 0.00e+00

  ==> Primary Basis <==

  Basis Set: STO-3G
    Number of shells: 5
    Number of basis function: 7
    Number of Cartesian functions: 7
    Spherical Harmonics?: true
    Max angular momentum: 1

  ==> Pre-Iterations <==

   -------------------------------------------------------
    Irrep   Nso     Nmo     Nalpha   Nbeta   Ndocc  Nsocc
   -------------------------------------------------------
     A          7       7       0       0       0       0
   -------------------------------------------------------
    Total       7       7       5       5       5       0
   -------------------------------------------------------

  Starting with a DF guess...

 OEINTS: Overlap, kinetic, potential, dipole, and quadrupole integrals
         stored in file 35.

  ==> Integral Setup <==

  ==> DFJK: Density-Fitted J/K Matrices <==

    J tasked:                  Yes
    K tasked:                  Yes
    wK tasked:                  No
    OpenMP threads:              1
    Integrals threads:           1
    Memory (MB):               183
    Algorithm:                Core
    Integral Cache:           NONE
    Schwarz Cutoff:          1E-12
    Fitting Condition:       1E-12

   => Auxiliary Basis Set <=

  Basis Set: 
    Number of shells: 30
    Number of basis function: 84
    Number of Cartesian functions: 96
    Spherical Harmonics?: true
    Max angular momentum: 3

  Minimum eigenvalue in the overlap matrix is 3.4405295835E-01.
  Using Symmetric Orthogonalization.
  SCF Guess: Core (One-Electron) Hamiltonian.

  ==> Iterations <==

                           Total Energy        Delta E     RMS |[F,P]|

   @DF-RHF iter   1:   -73.23436738638068   -7.32344e+01   1.48427e-01 
   @DF-RHF iter   2:   -74.94595521449396   -1.71159e+00   2.08049e-02 DIIS
   @DF-RHF iter   3:   -74.96287192109598   -1.69167e-02   4.15444e-03 DIIS
   @DF-RHF iter   4:   -74.96376095212027   -8.89031e-04   7.35486e-04 DIIS
   @DF-RHF iter   5:   -74.96379813757105   -3.71855e-05   1.70976e-04 DIIS
   @DF-RHF iter   6:   -74.96380014689032   -2.00932e-06   1.77161e-05 DIIS
   @DF-RHF iter   7:   -74.96380016685303   -1.99627e-08   4.09976e-08 DIIS

  DF guess converged.

  ==> Integral Setup <==

 MINTS: Wrapper to libmints.
   by Justin Turney

   Calculation information:
      Number of atoms:                   3
      Number of AO shells:               5
      Number of SO shells:               5
      Number of primitives:             15
      Number of atomic orbitals:         7
      Number of basis functions:         7

      Number of irreps:                  1
      Integral cutoff                 0.00e+00
      Number of functions per irrep: [   7 ]

 OEINTS: Overlap, kinetic, potential, dipole, and quadrupole integrals
         stored in file 35.

      Computing two-electron integrals...done
      Computed 231 non-zero two-electron integrals.
        Stored in file 33.

	Batch   1 pq = [       0,      28] index = [             0,406]
  ==> DiskJK: Disk-Based J/K Matrices <==

    J tasked:                  Yes
    K tasked:                  Yes
    wK tasked:                  No
    Memory (MB):               183
    Schwarz Cutoff:          1E-12

   @RHF iter   8:   -74.96331905226333    4.81115e-04   1.26595e-05 DIIS
   @RHF iter   9:   -74.96331905305934   -7.96007e-10   8.30638e-07 DIIS

  ==> Post-Iterations <==

    Orbital Energies (a.u.)
    -----------------------

    Doubly Occupied:                                                      

       1A    -20.242097     2A     -1.266998     3A     -0.616423  
       4A     -0.452702     5A     -0.391073  

    Virtual:                                                              

       6A      0.602919     7A      0.739017  

    Final Occupation by Irrep:
              A 
    DOCC [     5 ]

  Energy converged.

  @RHF Final Energy:   -74.96331905305934

   => Energetics <=

    Nuclear Repulsion Energy =              9.1681932603875715
    One-Electron Energy =                -122.3244344891674729
    Two-Electron Energy =                  38.1929221757205681
    DFT Exchange-Correlation Energy =       0.0000000000000000
    Empirical Dispersion Energy =           0.0000000000000000
    PCM Polarization Energy =               0.0000000000000000
    EFP Energy =                            0.0000000000000000
    Total Energy =                        -74.9633190530593367

    Alert: EFP and PCM quantities not currently incorporated into SCF psivars.

Properties will be evaluated at   0.000000,   0.000000,   0.000000 Bohr
  ==> Properties <==


Properties computed using the SCF density matrix

  Nuclear Dipole Moment: (a.u.)
     X:     0.0000      Y:     0.0000      Z:     0.9783

  Electronic Dipole Moment: (a.u.)
     X:    -0.0000      Y:    -0.0000      Z:    -0.3007

  Dipole Moment: (a.u.)
     X:    -0.0000      Y:    -0.0000      Z:     0.6776     Total:     0.6776

  Dipole Moment: (Debye)
     X:    -0.0000      Y:    -0.0000      Z:     1.7223     Total:     1.7223


  Saving occupied orbitals to File 180.

*** tstop() called on hal at Mon Sep 21 12:54:34 2015
Module time:
	user time   =       0.49 seconds =       0.01 minutes
	system time =       1.71 seconds =       0.03 minutes
	total time  =          1 seconds =       0.02 minutes
Total time:
	user time   =       0.49 seconds =       0.01 minutes
	system time =       1.71 seconds =       0.03 minutes
	total time  =          1 seconds =       0.02 minutes

*** tstart() called on hal
*** at Mon Sep 21 12:54:34 2015


         ---------------------------------------------------------
                                   SCF
            by Justin Turney, Rob Parrish, and Andy Simmonett
                              RHF Reference
                        1 Threads,    256 MiB Core
         ---------------------------------------------------------

  ==> Geometry <==

    Molecular point group: c1
    Full point group: C2v

    Geometry (in Angstrom), charge = 0, multiplicity = 1:

       Center              X                  Y                   Z               Mass       
    ------------   -----------------  -----------------  -----------------  -----------------
           O          0.000000000000     0.000000000000    -0.065775570538    15.994914619560
           H          0.000000000000    -0.759061990794     0.521953018295     1.007825032070
           H          0.000000000000     0.759061990794     0.521953018295     1.007825032070

  Running in c1 symmetry.

  Rotational constants: A =     27.26297  B =     14.51533  C =      9.47217 [cm^-1]
  Rotational constants: A = 817323.20514  B = 435158.59817  C = 283968.37324 [MHz]
  Nuclear repulsion =    9.168193260387577

  Charge       = 0
  Multiplicity = 1
  Electrons    = 10
  Nalpha       = 5
  Nbeta        = 5

  ==> Algorithm <==

  SCF Algorithm Type is PK.
  DIIS enabled.
  MOM disabled.
  Fractional occupation disabled.
  Guess Type is CORE.
  Energy threshold   = 1.00e-08
  Density threshold  = 1.00e-08
  Integral threshold = 0.00e+00

  ==> Primary Basis <==

  Basis Set: STO-3G
    Number of shells: 5
    Number of basis function: 7
    Number of Cartesian functions: 7
    Spherical Harmonics?: true
    Max angular momentum: 1

  ==> Pre-Iterations <==

   -------------------------------------------------------
    Irrep   Nso     Nmo     Nalpha   Nbeta   Ndocc  Nsocc
   -------------------------------------------------------
     A          7       7       0       0       0       0
   -------------------------------------------------------
    Total       7       7       5       5       5       0
   -------------------------------------------------------

  Starting with a DF guess...

 OEINTS: Overlap, kinetic, potential, dipole, and quadrupole integrals
         stored in file 35.

  ==> Integral Setup <==

  ==> DFJK: Density-Fitted J/K Matrices <==

    J tasked:                  Yes
    K tasked:                  Yes
    wK tasked:                  No
    OpenMP threads:              1
    Integrals threads:           1
    Memory (MB):               183
    Algorithm:                Core
    Integral Cache:           NONE
    Schwarz Cutoff:          1E-12
    Fitting Condition:       1E-12

   => Auxiliary Basis Set <=

  Basis Set: 
    Number of shells: 30
    Number of basis function: 84
    Number of Cartesian functions: 96
    Spherical Harmonics?: true
    Max angular momentum: 3

  Minimum eigenvalue in the overlap matrix is 3.4405295835E-01.
  Using Symmetric Orthogonalization.
  SCF Guess: Core (One-Electron) Hamiltonian.

  ==> Iterations <==

                           Total Energy        Delta E     RMS |[F,P]|

   @DF-RHF iter   1:   -73.23436738638014   -7.32344e+01   1.48427e-01 
   @DF-RHF iter   2:   -74.94595521449331   -1.71159e+00   2.08049e-02 DIIS
   @DF-RHF iter   3:   -74.96287192109538   -1.69167e-02   4.15444e-03 DIIS
   @DF-RHF iter   4:   -74.96376095211976   -8.89031e-04   7.35486e-04 DIIS
   @DF-RHF iter   5:   -74.96379813757046   -3.71855e-05   1.70976e-04 DIIS
   @DF-RHF iter   6:   -74.96380014688971   -2.00932e-06   1.77161e-05 DIIS
   @DF-RHF iter   7:   -74.96380016685241   -1.99627e-08   4.09976e-08 DIIS
   @DF-RHF iter   8:   -74.96380016685249   -8.52651e-14   6.38121e-10 DIIS

  DF guess converged.

  ==> Integral Setup <==

 MINTS: Wrapper to libmints.
   by Justin Turney

   Calculation information:
      Number of atoms:                   3
      Number of AO shells:               5
      Number of SO shells:               5
      Number of primitives:             15
      Number of atomic orbitals:         7
      Number of basis functions:         7

      Number of irreps:                  1
      Integral cutoff                 0.00e+00
      Number of functions per irrep: [   7 ]

 OEINTS: Overlap, kinetic, potential, dipole, and quadrupole integrals
         stored in file 35.

      Computing two-electron integrals...done
      Computed 231 non-zero two-electron integrals.
        Stored in file 33.

	Batch   1 pq = [       0,      28] index = [             0,406]
  ==> DiskJK: Disk-Based J/K Matrices <==

    J tasked:                  Yes
    K tasked:                  Yes
    wK tasked:                  No
    Memory (MB):               183
    Schwarz Cutoff:          1E-12

   @RHF iter   9:   -74.96331905226299    4.81115e-04   1.26595e-05 DIIS
   @RHF iter  10:   -74.96331905305918   -7.96192e-10   8.30759e-07 DIIS
   @RHF iter  11:   -74.96331905308631   -2.71285e-11   2.58553e-07 DIIS
   @RHF iter  12:   -74.96331905309113   -4.81748e-12   6.51448e-08 DIIS
   @RHF iter  13:   -74.96331905309141   -2.84217e-13   2.16835e-09 DIIS

  ==> Post-Iterations <==

    Orbital Energies (a.u.)
    -----------------------

    Doubly Occupied:                                                      

       1A    -20.242099     2A     -1.266998     3A     -0.616423  
       4A     -0.452703     5A     -0.391074  

    Virtual:                                                              

       6A      0.602918     7A      0.739017  

    Final Occupation by Irrep:
              A 
    DOCC [     5 ]

  Energy converged.

  @RHF Final Energy:   -74.96331905309141

   => Energetics <=

    Nuclear Repulsion Energy =              9.1681932603875769
    One-Electron Energy =                -122.3244302272507582
    Two-Electron Energy =                  38.1929179137717796
    DFT Exchange-Correlation Energy =       0.0000000000000000
    Empirical Dispersion Energy =           0.0000000000000000
    PCM Polarization Energy =               0.0000000000000000
    EFP Energy =                            0.0000000000000000
    Total Energy =                        -74.9633190530913964

    Alert: EFP and PCM quantities not currently incorporated into SCF psivars.

Properties will be evaluated at   0.000000,   0.000000,   0.000000 Bohr
  ==> Properties <==


Properties computed using the SCF density matrix

  Nuclear Dipole Moment: (a.u.)
     X:     0.0000      Y:     0.0000      Z:     0.9783

  Electronic Dipole Moment: (a.u.)
     X:    -0.0000      Y:     0.0000      Z:    -0.3007

  Dipole Moment: (a.u.)
     X:    -0.0000      Y:     0.0000      Z:     0.6776     Total:     0.6776

  Dipole Moment: (Debye)
     X:    -0.0000      Y:     0.0000      Z:     1.7223     Total:     1.7223


  Saving occupied orbitals to File 180.

*** tstop() called on hal at Mon Sep 21 12:54:34 2015
Module time:
	user time   =       0.52 seconds =       0.01 minutes
	system time =       1.56 seconds =       0.03 minutes
	total time  =          0 seconds =       0.00 minutes
Total time:
	user time   =       1.06 seconds =       0.02 minutes
	system time =       3.39 seconds =       0.06 minutes
	total time  =          1 seconds =       0.02 minutes

*** tstart() called on hal
*** at Mon Sep 21 12:54:34 2015


 ============================================================================== 
 ============================================================================== 
 ============================================================================== 

                       MP2   
              Program Written by Ugur Bozkaya,
              Latest Revision June 25, 2014.

 ============================================================================== 
 ============================================================================== 
 ============================================================================== 

	RMS orbital gradient is changed to :     1.00e-05
	MAX orbital gradient is changed to :     3.16e-04
	MO spaces per irreps... 

	IRREP   FC    OCC   VIR  FV 
	==============================
	   A     0     5     2    0
	==============================

	Memory is    256 MB 
	Cost of iabc is      0 MB 
	Cost of abcd is      0 MB 
	Switching to the incore algoritm for iabc..
	Switching to the incore algoritm for abcd..

	Computing MP2 energy using SCF MOs (Canonical MP2)... 
	============================================================================== 
	Nuclear Repulsion Energy (a.u.)    :     9.16819326038758
	SCF Energy (a.u.)                  :   -74.96331905309141
	REF Energy (a.u.)                  :   -74.96331905309141
	Alpha-Alpha Contribution (a.u.)    :    -0.00102140223616
	Alpha-Beta Contribution (a.u.)     :    -0.03368271599082
	Beta-Beta Contribution (a.u.)      :    -0.00102140223616
	Scaled_SS Correlation Energy (a.u.):    -0.00068093482411
	Scaled_OS Correlation Energy (a.u.):    -0.04041925918898
	SCS-MP2 Total Energy (a.u.)        :   -75.00441924710451
	SOS-MP2 Total Energy (a.u.)        :   -74.96331905309141
	SCSN-MP2 Total Energy (a.u.)       :   -74.96691438896271
	SCS-MP2-VDW Total Energy (a.u.)    :   -75.00745433179581
	SOS-PI-MP2 Total Energy (a.u.)     :   -75.01047485547856
	MP2 Correlation Energy (a.u.)      :    -0.03572552046314
                                          -0.0554434
	MP2 Total Energy (a.u.)            :   -74.99904457355456
	============================================================================== 

*** tstop() called on hal at Mon Sep 21 12:54:34 2015
Module time:
	user time   =       0.08 seconds =       0.00 minutes
	system time =       0.45 seconds =       0.01 minutes
	total time  =          0 seconds =       0.00 minutes
Total time:
	user time   =       1.15 seconds =       0.02 minutes
	system time =       3.84 seconds =       0.06 minutes
	total time  =          1 seconds =       0.02 minutes

*** PSI4 exiting successfully. Buy a developer a beer!
